2
Lattice="2.531018533837326 0.0 0.0 0.4633619084527313 2.224098734840598 0.0 0.7158452731898562 -0.0520906060754455 4.500448171335375" Properties=species:S:1:pos:R:3:initial_magmoms:R:1:forces:R:3 energy=-27.81611164 stress="0.006842703362226846 -0.09132452918164094 0.0402902832822145 -0.09132452918164094 -0.1478929204086883 0.00798235105543384 0.0402902832822145 0.00798235105543384 0.022508629992422327" config_type=matpes-20240214_13_1 pbc="T T T"
Fe       1.76398000       0.17545200       2.12053000       2.86600000      -0.38557967       0.40826117      -0.98614855
Fe       3.51648000       2.08253000       4.18399000       2.86600000       0.38557967      -0.40826117       0.98614855
2
Lattice="2.4305512061351564 0.0 0.0 -1.4514120965562705 2.2834535017026676 0.0 0.0970704920427421 -0.2617031856339336 4.096096239879755" Properties=species:S:1:pos:R:3:initial_magmoms:R:1:forces:R:3 energy=-28.68151012 stress="-0.04662994259827386 0.021370701866187065 0.013225741553684788 0.021370701866187065 -0.04611536699574725 -0.03198528171915855 0.013225741553684788 -0.03198528171915855 -0.056288520466121324" config_type=matpes-20240214_136_7 pbc="T T T"
Fe      -0.95064900       1.61534000       0.88315400       2.71000000      -0.49466064      -0.13182525       0.32110808
Fe       2.03047000       0.23100100       2.95878000       2.71000000       0.49466064       0.13182525      -0.32110808
2
Lattice="2.4904873771012763 0.0 0.0 0.0704411317144883 2.2964335231075026 0.0 -0.187824241141199 -0.5841100430651383 4.118141646963554" Properties=species:S:1:pos:R:3:initial_magmoms:R:1:forces:R:3 energy=-28.11728672 stress="-0.03320461540225135 -0.01485382575248213 -0.02896457585740629 -0.01485382575248213 -0.15370387020608092 0.013281942848118409 -0.02896457585740629 0.013281942848118409 -0.0663497350855147" config_type=matpes-20240214_136_3 pbc="T T T"
Fe       0.60208600       0.66532300       0.85829600       2.80000000      -0.21045178      -0.53011739      -0.11141177
Fe       1.71469000       0.85861300       2.98364000       2.80000000       0.21045178       0.53011739       0.11141177
2
Lattice="2.452299922015958 0.0 0.0 -0.8192204932690774 2.333517478457568 0.0 0.6045320472264449 -0.2756572520303583 4.090697663284521" Properties=species:S:1:pos:R:3:initial_magmoms:R:1:forces:R:3 energy=-28.69341416 stress="-0.011915824118391235 0.017819977304262873 0.026054669796185287 0.017819977304262873 -0.026933887943370833 -0.016626344439335517 0.026054669796185287 -0.016626344439335517 -0.019383446691773932" config_type=matpes-20240214_1271128_68 pbc="T T T"
Fe       0.00300064       1.03476000       1.85461000       2.76400000      -0.44782494       0.05005922       0.17137253
Fe       1.69088000      -0.19245500       3.90044000       2.76400000       0.44782494      -0.05005922      -0.17137253
2
Lattice="2.717726898357009 0.0 0.0 -1.2267702273428407 2.156029150564631 0.0 -0.0216516434075124 0.1342419646952601 4.095491775214159" Properties=species:S:1:pos:R:3:initial_magmoms:R:1:forces:R:3 energy=-28.53151621 stress="-0.009128285446292806 -0.02544100649137954 0.005454588274830631 -0.02544100649137954 0.03998912782673146 -0.0030152616991756804 0.005454588274830631 -0.0030152616991756804 -0.07236045344515302" config_type=matpes-20240214_1271128_65 pbc="T T T"
Fe       0.09620720       0.97205100       1.83188000       2.84800000       0.53908782      -0.10301493       0.53376527
Fe       1.68076836       0.57385496       3.92557178       2.84800000      -0.53908782       0.10301493      -0.53376527
2
Lattice="2.5579048113429477 0.0 0.0 -1.0588693518231604 2.1397762630093373 0.0 -0.5021760474993584 1.0343150348380936 4.167650802995377" Properties=species:S:1:pos:R:3:initial_magmoms:R:1:forces:R:3 energy=-28.59149361 stress="-0.06930024021000732 0.006754788198460415 -0.020483802274995744 0.006754788198460415 -0.05898169447327731 -0.01764339536795956 -0.020483802274995744 -0.01764339536795956 -0.054397370164293045" config_type=matpes-20240214_1271128_61 pbc="T T T"
Fe       0.09876080       1.22543000       1.84183000      -2.73200000      -0.44710378      -0.20663813       0.19649936
Fe       1.04137395       1.67871103       3.95169880      -2.73200000       0.44710378       0.20663813      -0.19649936
2
Lattice="2.4301413756591144 0.0 0.0 1.3523087128061753 2.2078802744073682 0.0 -0.3848878009795877 -0.6493184618962526 4.3261969524809345" Properties=species:S:1:pos:R:3:initial_magmoms:R:1:forces:R:3 energy=-28.46923205 stress="-0.059150498559224884 0.05987944760569142 0.02211334057689867 0.05987944760569142 -0.06221635224616765 -0.015302927718308249 0.02211334057689867 -0.015302927718308249 -0.023775826563416907" config_type=matpes-20240214_1271128_50 pbc="T T T"
Fe       2.62386000       1.34745000       1.86014000       2.71900000      -0.20973988       0.28035843       0.00771136
Fe       0.57395800       0.10112300       4.01266000       2.71900000       0.20973988      -0.28035843      -0.00771136
2
Lattice="2.416833530135774 0.0 0.0 -0.5557302310941581 2.3959572970963396 0.0 0.3892231968162604 -0.713629077443493 4.09383466299655" Properties=species:S:1:pos:R:3:initial_magmoms:R:1:forces:R:3 energy=-28.5983775 stress="-0.0653349142168938 0.02866686497846268 0.021972973000015474 0.02866686497846268 0.015922108947845424 -0.0680477277878729 0.021972973000015474 -0.0680477277878729 -0.011899488853189947" config_type=matpes-20240214_1271128_45 pbc="T T T"
Fe       1.50170000       2.05875000       1.85030000       2.78700000      -0.34035100      -0.11595952       0.07685982
Fe       0.67137400       0.49133800       3.90632000       2.78700000       0.34035100       0.11595952      -0.07685982
2
Lattice="2.5266374054592213 0.0 0.0 0.651729546313616 2.4788734169940296 0.0 0.0284431301075894 -0.0407278364367914 3.941172905820347" Properties=species:S:1:pos:R:3:initial_magmoms:R:1:forces:R:3 energy=-28.67796629 stress="0.02455591769929884 -0.00902023597299939 0.009738732676208237 -0.00902023597299939 0.05172232100031795 -0.012466050759173314 0.009738732676208237 -0.012466050759173314 0.01613879723020694" config_type=matpes-20240214_1271128_43 pbc="T T T"
Fe       1.54069000       1.23552000       1.91890000       2.83600000       0.25002311      -0.49186466      -1.01454064
Fe       3.16573000       2.36539000       3.76139000       2.83600000      -0.25002311       0.49186466       1.01454064
2
Lattice="2.4196956036297683 0.0 0.0 -0.0210866781317001 2.3567229607663465 0.0 0.1139462967655008 1.4509145745611576 4.046370776435088" Properties=species:S:1:pos:R:3:initial_magmoms:R:1:forces:R:3 energy=-28.0778423 stress="-0.116024628082314 0.004003048763010138 0.01728305210585824 0.004003048763010138 -0.07211126627388988 0.055649114219205036 0.01728305210585824 0.055649114219205036 -0.14111880701873644" config_type=matpes-20240214_1271128_35 pbc="T T T"
Fe       1.28848000       2.35433000       1.83827000       2.75600000      -0.29052570      -0.15769119      -0.56674653
Fe       2.49403540       2.24459357       3.89461278       2.75600000       0.29052570       0.15769119       0.56674653
2
Lattice="2.7241471419483454 0.0 0.0 -1.5167206855864779 2.0408906159481743 0.0 1.1676938082570527 -0.955878563855116 4.168829465807169" Properties=species:S:1:pos:R:3:initial_magmoms:R:1:forces:R:3 energy=-28.43457707 stress="0.01073367612957627 -0.08217732046583684 0.009028390660710109 -0.08217732046583684 -0.08866260602370478 0.0358020175525419 0.009028390660710109 0.0358020175525419 -0.0803092599154878" config_type=matpes-20240214_1271128_21 pbc="T T T"
Fe       1.00900000      -0.05878280       1.85087000       2.73000000       0.04870850      -0.37253192       0.55168328
Fe       2.40702000       0.02707580       3.94325000       2.73000000      -0.04870850       0.37253192      -0.55168328
2
Lattice="2.402869470792543 0.0 0.0 -0.5254284984773404 2.433946047422028 0.0 -0.324652154634783 0.866989123216986 3.8287629049396807" Properties=species:S:1:pos:R:3:initial_magmoms:R:1:forces:R:3 energy=-28.31727269 stress="-0.15982670539333269 0.03067802623133361 -0.016522072239983972 0.03067802623133361 -0.0035215454880360804 0.10182631235685898 -0.016522072239983972 0.10182631235685898 -0.18660119190325034" config_type=matpes-20240214_1271128_20 pbc="T T T"
Fe       0.79492700       1.53837000       1.81462000       2.71400000       0.15069950       0.44576829       0.45491280
Fe      -0.32321738       0.96769712       3.80946310       2.71400000      -0.15069950      -0.44576829      -0.45491280
2
Lattice="2.5400838306930433 0.0 0.0 -1.140760300193444 2.2029373097077274 0.0 0.7533374191821947 -1.0713177199226913 4.125175301027504" Properties=species:S:1:pos:R:3:initial_magmoms:R:1:forces:R:3 energy=-28.58916281 stress="-0.0608995089577216 -0.009511990689535392 -0.003648463405424621 -0.009511990689535392 -0.004285803357054215 0.002513709648315699 -0.003648463405424621 0.002513709648315699 -0.08127455676224363" config_type=matpes-20240214_1271128_17 pbc="T T T"
Fe       0.94411800      -0.27582300       1.86503000       2.76400000      -0.47404880      -0.24217768      -0.30791588
Fe       2.03834742      -0.01006772       3.90726030       2.76400000       0.47404880       0.24217768       0.30791588
2
Lattice="2.5006866741280427 0.0 0.0 0.7277596863544623 2.3086871977924552 0.0 -0.3710541187702056 -1.3950073460615309 4.134280861566674" Properties=species:S:1:pos:R:3:initial_magmoms:R:1:forces:R:3 energy=-28.38719449 stress="-0.04909984323134808 -0.05166286478384121 -0.009899888679016321 -0.05166286478384121 0.028391644528809 -0.019496385407550557 -0.009899888679016321 -0.019496385407550557 -0.08145083230910545" config_type=matpes-20240214_1271128_13 pbc="T T T"
Fe       1.71334000       1.33916000       1.88945000       2.77500000      -0.51972006       0.25660937      -1.28743980
Fe       2.13102698      -1.00911335       3.88738986       2.77500000       0.51972006      -0.25660937       1.28743980
2
Lattice="2.671718986834685 0.0 0.0 -1.3578092705282365 2.136494422428568 0.0 1.0302284637772743 -1.150387160251873 4.178276836000755" Properties=species:S:1:pos:R:3:initial_magmoms:R:1:forces:R:3 energy=-28.62578783 stress="0.00026122490777086906 -0.034732608270343614 0.010730976520841588 -0.034732608270343614 0.0015411259520025466 0.011869488452874452 0.010730976520841588 0.011869488452874452 -0.03496081135061226" config_type=matpes-20240214_1271128_18 pbc="T T T"
Fe       0.96917200      -0.25829700       1.85524000       2.82400000       0.11273286      -0.09572677       0.15224812
Fe       2.32010000      -0.11297500       3.94360000       2.82400000      -0.11273286       0.09572677      -0.15224812
2
Lattice="2.422838 0.0 0.0 -0.036995 2.422556 0.0 -0.001658 0.00166 3.709703" Properties=species:S:1:pos:R:3:initial_magmoms:R:1:forces:R:3 energy=-28.5045195 stress="-0.1123723551967604 0.007972046230244343 -0.00020677304593014854 0.007972046230244343 -0.11212891156205909 0.00020237506014722002 -0.00020677304593014854 0.00020237506014722002 -0.17293050897372275" config_type=matpes-20240214_1271128_0 pbc="T T T"
Fe       1.19209000       1.21211000       1.85485000       2.71800000      -0.00000000      -0.00000000       0.00000000
Fe       0.00000000       0.00000000       0.00000000       2.71800000       0.00000000       0.00000000       0.00000000
3
Lattice="2.6623796817777077 0.0 0.0 1.150563655276392 2.4079792717661643 0.0 -1.7697602515960977 0.0898262813552308 4.627488344689086" Properties=species:S:1:pos:R:3:initial_magmoms:R:1:forces:R:3 energy=-35.66968562 stress="-0.057560085862568194 0.008618342216941329 0.050521644355164666 0.008618342216941329 -0.018712625612468566 -0.05324603457116482 0.050521644355164666 -0.05324603457116482 0.046229209912709436" config_type=matpes-20240214_568748_53 pbc="T T T"
Fe       1.86288000       1.22640000       0.79570800       2.41800000      -0.17040120      -0.09698168       0.16325335
Fe       0.77928634       0.37242073       3.34379000       2.40800000       0.19178931      -0.04484184      -0.15024081
B        0.56578200       1.98856000       2.07390000      -0.21400000      -0.02138811       0.14182351      -0.01301255
3
Lattice="2.515515987555512 0.0 0.0 -0.1699202380901793 5.03789746684987 0.0 -0.9862376762979705 1.9083466821897561 2.7044662616852473" Properties=species:S:1:pos:R:3:initial_magmoms:R:1:forces:R:3 energy=-34.12731094 stress="0.006255991180936152 -0.03474343858066944 -0.05601973885714607 -0.03474343858066944 0.06839658515649584 -0.06713247081746987 -0.05601973885714607 -0.06713247081746987 0.04054368124391885" config_type=matpes-20240214_568748_50 pbc="T T T"
Fe       0.21696232       3.58452668       2.67018826       3.04100000       0.07653354       0.23691009      -0.22260132
Fe       1.03523976       6.23052747       2.52356000      -0.77400000       0.31694678      -0.45712042       0.46166448
B       -0.09804090       5.29665000       1.34323000      -0.01300000      -0.39348032       0.22021032      -0.23906317
3
Lattice="2.432426164377883 0.0 0.0 -0.0830881090153157 2.463918458336855 0.0 -1.0486461259094875 -0.058602103464557 4.717210679955963" Properties=species:S:1:pos:R:3:initial_magmoms:R:1:forces:R:3 energy=-35.25329176 stress="-0.15163079454333006 0.00017655416158770024 0.007057199489270146 0.00017655416158770024 -0.0038965268429017046 -0.08532544894588859 0.007057199489270146 -0.08532544894588859 -0.029074854385819877" config_type=matpes-20240214_568748_40 pbc="T T T"
Fe       0.64607400       1.69751000       0.84279500       2.28200000      -0.26498042      -0.19767526      -1.04422236
Fe       0.63592800       1.24703000       3.32249000       2.14400000       0.16719391       0.27541950       1.33442765
B        1.88985811       0.22928154       2.12017000      -0.19200000       0.09778651      -0.07774424      -0.29020530
3
Lattice="3.401298943523639 0.0 0.0 0.550403500643346 3.640956366593139 0.0 0.0269040354445299 -0.6045084843446246 2.4764712609904294" Properties=species:S:1:pos:R:3:initial_magmoms:R:1:forces:R:3 energy=-35.32355882 stress="0.03626983845959505 0.08837714085459447 0.016994918123619293 0.08837714085459447 -0.09153911298940444 -0.013108462074280902 0.016994918123619293 -0.013108462074280902 -0.00947866058765594" config_type=matpes-20240214_568748_38 pbc="T T T"
Fe       0.33027106       1.08588000       2.23910000       2.50900000       0.13816866       0.28445602       0.08217020
Fe       2.31254350       3.56733007       0.29091000       2.35300000       0.11720432      -0.26037008      -0.05564181
B        2.05252000       1.73909000       1.13286000      -0.19400000      -0.25537298      -0.02408594      -0.02652840
3
Lattice="3.7324497464257123 0.0 0.0 1.2122281685409324 3.857419118597046 0.0 -1.1495251984487576 0.351780154163028 2.01636482404904" Properties=species:S:1:pos:R:3:initial_magmoms:R:1:forces:R:3 energy=-35.14637721 stress="-0.05801924766810912 0.03540474837401407 0.07995200930867533 0.03540474837401407 -0.037579601454986795 -0.03548281445510436 0.07995200930867533 -0.03548281445510436 0.004323314620931073" config_type=matpes-20240214_568748_27 pbc="T T T"
Fe       1.15075000       3.61684000       1.25174000       2.53400000      -0.15426382      -0.20263850       0.28115274
Fe       2.88272000       2.14879000       1.85293000       2.11600000      -0.17578613       0.26758280      -0.05647574
B        2.11646000       1.03154000       0.18075800      -0.12200000       0.33004995      -0.06494429      -0.22467701
3
Lattice="2.5888679969284016 0.0 0.0 0.5224717140266057 6.13062932196364 0.0 -0.6227336766629911 -2.6232392059252625 1.7738098418787116" Properties=species:S:1:pos:R:3:initial_magmoms:R:1:forces:R:3 energy=-35.46031832 stress="-0.07445216078035032 0.04396072138102997 -0.012402477986560132 0.04396072138102997 -0.03128419744703745 -0.03405382068482767 -0.012402477986560132 -0.03405382068482767 -0.011187975599779819" config_type=matpes-20240214_568748_28 pbc="T T T"
Fe       1.52640000       3.67572000       0.89292500       2.23000000       0.23181378      -0.50348780      -0.00838556
Fe       0.05045200       1.63365000       0.61737500       2.26400000       0.07834391       0.32150430       0.02546358
B        0.61645600      -0.40352400       0.78512700      -0.15400000      -0.31015769       0.18198350      -0.01707803
3
Lattice="2.566203052743526 0.0 0.0 1.8847187937538386 4.571253060311652 0.0 0.1501447168016773 0.3405032744944738 2.4051137405068133" Properties=species:S:1:pos:R:3:initial_magmoms:R:1:forces:R:3 energy=-35.59896199 stress="0.0011735835522716446 0.06562247436102521 -0.0023174557173078676 0.06562247436102521 -0.04775404130039171 -0.04112387117924466 -0.0023174557173078676 -0.04112387117924466 0.003100085100189051" config_type=matpes-20240214_568748_20 pbc="T T T"
Fe       2.07130000       0.89347700       2.37147000       2.33100000       0.34601343      -0.06556295      -0.05354958
Fe       1.11399695       2.66865000       0.54590600       2.23900000      -0.19233971      -0.02468751       0.40343458
B        2.55907000       4.04432000       1.53700000      -0.19900000      -0.15367372       0.09025046      -0.34988500
3
Lattice="2.496528407913053 0.0 0.0 -0.6110867438452575 4.920220621073973 0.0 0.1997133587759959 -2.2886083372192525 2.476925250299303" Properties=species:S:1:pos:R:3:initial_magmoms:R:1:forces:R:3 energy=-35.49154544 stress="-0.018921523592663646 0.003715430934851379 0.014972067622661157 0.003715430934851379 -0.011683837641260264 -0.018055470186322666 0.014972067622661157 -0.018055470186322666 0.005016049501464275" config_type=matpes-20240214_568748_19 pbc="T T T"
Fe       0.41527000       1.48142000       0.00356892       2.23000000       0.81977407      -0.44549439       0.22838469
Fe       0.85596336       1.74521166       2.47305406       2.45100000      -0.73669897       0.03715556      -0.03821290
B        1.93033000       0.41073000       1.40864000      -0.19400000      -0.08307510       0.40833884      -0.19017179
3
Lattice="2.9659987957909184 0.0 0.0 0.1516454448866867 4.121449319997814 0.0 -1.6202217348808459 -0.1666949795197622 2.6152526901016167" Properties=species:S:1:pos:R:3:initial_magmoms:R:1:forces:R:3 energy=-35.75069475 stress="0.04998798968881747 0.011622390982557237 -0.019166219255371104 0.011622390982557237 -0.0056169479339491174 -0.010868161739466763 -0.019166219255371104 -0.010868161739466763 0.08877436314066424" config_type=matpes-20240214_568748_15 pbc="T T T"
Fe      -0.85134800       0.55783600       1.91870000       2.49800000      -0.36879623       0.10512733       0.57961448
Fe       0.66296700       2.78530000       1.27440000       2.49600000       0.29245282      -0.12754625      -0.11781015
B        2.18931000       1.75757000       0.32284400      -0.23200000       0.07634341       0.02241892      -0.46180433
3
Lattice="2.4497738876392137 0.0 0.0 -1.1052124320305348 5.164600015347341 0.0 0.040181223129552 0.4135507069863017 2.6013567010135485" Properties=species:S:1:pos:R:3:initial_magmoms:R:1:forces:R:3 energy=-35.12416811 stress="0.07386865030599593 -1.3059771144087915e-05 -0.012315766678832395 -1.3059771144087915e-05 0.1466287092076822 -0.021561127201346727 -0.012315766678832395 -0.021561127201346727 0.06490601605355727" config_type=matpes-20240214_568748_5 pbc="T T T"
Fe      -0.32249200       4.22904000       1.19208000       2.47200000       0.22622147       0.23436142      -0.40999594
Fe       0.12471600       1.60923000       1.55218000       2.52800000      -0.33192845      -0.16604890       0.06618026
B        1.05277000       2.73841000       0.02612510      -0.21600000       0.10570697      -0.06831252       0.34381568
3
Lattice="2.370062698767687 0.0 0.0 0.3260639739733307 4.379487824543469 0.0 -1.0432018979978863 2.8240062295710504 2.9613712750139123" Properties=species:S:1:pos:R:3:initial_magmoms:R:1:forces:R:3 energy=-34.56117829 stress="-0.04426217588593977 -0.019346349720548325 0.02276715839348855 -0.019346349720548325 0.00854555110983974 -0.059164032990896495 0.02276715839348855 -0.059164032990896495 0.01985453085328489" config_type=matpes-20240214_568748_0 pbc="T T T"
Fe       0.28519730       3.02687000       0.92199000       2.41100000       0.38434280      -0.88433134       0.48332002
Fe       0.26753400       5.19237000       1.81150000       2.50600000      -0.13811210       0.70745770      -0.01983777
B        1.15187000       0.27100800       0.08175570      -0.11500000      -0.24623070       0.17687364      -0.46348225
3
Lattice="3.1187282285155513 0.0 0.0 1.1870696352636243 2.8255176529407864 0.0 -0.1680107835884003 0.1010302888220762 2.435243355172906" Properties=species:S:1:pos:R:3:initial_magmoms:R:1:forces:R:3 energy=-28.08691301 stress="0.017674327113783805 -0.12755048255448126 -0.003938455821971837 -0.12755048255448126 0.08012444101590047 -0.01863795782088602 -0.003938455821971837 -0.01863795782088602 -0.09399810659152265" config_type=matpes-20240214_569376_45 pbc="T T T"
Fe       2.97013323       0.12075100       0.08340720       0.00500000      -1.15606045      -1.12834565       0.03126869
B        1.09251000       1.09258000       1.36399000       0.00000000       0.28693379       0.11755641      -0.17610580
B        2.54060000       1.90414000       1.28337000       0.00000000       0.86912666       1.01078923       0.14483711
3
Lattice="2.9925234650522534 0.0 0.0 1.3458164162795319 2.274869647245211 0.0 -1.3886814738112654 0.2184654045307653 3.3704450441658524" Properties=species:S:1:pos:R:3:initial_magmoms:R:1:forces:R:3 energy=-28.26400021 stress="-0.0897985877914927 0.021417209622593466 0.020051166920688954 0.021417209622593466 -0.23048566178465515 -0.071169654350199 0.020051166920688954 -0.071169654350199 -0.0769194116306572" config_type=matpes-20240214_569376_44 pbc="T T T"
Fe       2.04693000       1.80683000       2.92838000       2.11400000       0.01337213      -0.88239238       0.87156538
B        1.98810000       0.44940700       1.29623000       0.01700000       0.70033638      -0.18585503      -0.05933390
B        0.54430800       1.05565000       1.65006000      -0.03000000      -0.71370851       1.06824741      -0.81223148
3
Lattice="2.9753069456223655 0.0 0.0 0.8307856625811529 2.977156530012661 0.0 1.0083301228389 -1.028869132640215 2.758714678394956" Properties=species:S:1:pos:R:3:initial_magmoms:R:1:forces:R:3 energy=-28.05454738 stress="0.02705743842303124 0.09612404629491714 0.0937139596665888 0.09612404629491714 -0.09803127974242706 -0.14723100457104904 0.0937139596665888 -0.14723100457104904 -0.057089730927775965" config_type=matpes-20240214_569376_27 pbc="T T T"
Fe       3.48551000      -0.99254200       2.66941000       1.90600000      -0.42424804       0.52963555       0.68136366
B        1.06745000       1.19013000       0.88283600      -0.02500000       0.69720878      -0.83248748      -0.99689380
B        2.58636000       0.72113400       1.82122000      -0.03100000      -0.27296074       0.30285193       0.31553014
3
Lattice="3.102453634590236 0.0 0.0 -1.6046834384585111 2.5873787331166627 0.0 -0.0967345102526972 -0.0115660670427337 2.693656214690294" Properties=species:S:1:pos:R:3:initial_magmoms:R:1:forces:R:3 energy=-28.63117062 stress="-0.00700863415072379 0.006754489036686503 -0.01951647533994766 0.006754489036686503 -0.002571592754832346 -0.01473398105027655 -0.01951647533994766 -0.01473398105027655 -0.11787962771308128" config_type=matpes-20240214_569376_20 pbc="T T T"
Fe       2.85211256       0.19052520       2.67719861       1.66000000      -0.40151447       0.26285637      -0.77272054
B        1.26142000       1.12719000       1.33570000       0.04300000       0.20718467      -0.45354592      -0.60950546
B       -0.28083900       1.95183000       1.16010000       0.03900000       0.19432981       0.19068955       1.38222600
3
Lattice="3.050475722939039 0.0 0.0 -0.3564398029371281 2.530183939083777 0.0 -1.3914545974218204 -1.1465006890414253 3.13875600598155" Properties=species:S:1:pos:R:3:initial_magmoms:R:1:forces:R:3 energy=-28.31999773 stress="0.1573672697363306 -0.01963630559930112 -0.053744911192896476 -0.01963630559930112 -0.01995389045442608 0.018145750782183664 -0.053744911192896476 0.018145750782183664 -0.018928994622913767" config_type=matpes-20240214_569376_16 pbc="T T T"
Fe       1.09238521      -0.92953463       2.88687101       1.03200000      -0.28560866       0.73895444      -0.57482474
B        0.82127100       0.44770900       1.22228000      -0.05500000       0.73070631       0.08968719       0.40395186
B       -0.66990100       1.56727000       1.34003000      -0.05800000      -0.44509764      -0.82864163       0.17087287
3
Lattice="2.8647355934286782 0.0 0.0 0.121149621224856 2.6113905278258227 0.0 0.2355548946321233 -1.5094606398419514 3.104325726258426" Properties=species:S:1:pos:R:3:initial_magmoms:R:1:forces:R:3 energy=-28.02181571 stress="0.015558907605092712 0.05757988576451923 0.006688058532946446 0.05757988576451923 -0.15449395549603562 -0.06715464362884342 0.006688058532946446 -0.06715464362884342 0.16264900045825145" config_type=matpes-20240214_569376_10 pbc="T T T"
Fe       3.04632489      -1.30397064       2.86674873       1.90300000       0.12116171      -0.16060704      -0.07815513
B        1.70792000       0.08729490       1.81971000       0.01000000      -0.68115186      -0.57463380       0.65295031
B        1.43002000       1.41425000       0.75762000       0.00900000       0.55999015       0.73524084      -0.57479519
3
Lattice="2.6168608462675325 0.0 0.0 -0.001974885769234 3.0608683691207244 0.0 0.0006421749109007 -1.53034567599249 2.6456218860812917" Properties=species:S:1:pos:R:3:initial_magmoms:R:1:forces:R:3 energy=-28.57025955 stress="-0.08763028636647585 0.0031777557317441392 0.0004182858751659782 0.0031777557317441392 -0.0040727111701076586 0.0018054145045278635 0.0004182858751659782 0.0018054145045278635 -0.013606545599930946" config_type=matpes-20240214_569376_1 pbc="T T T"
Fe       0.07065849       1.52791247       2.59618579       1.00500000       0.03119363      -0.42520787       0.80044941
B        1.33171000      -0.02723940       1.86468000       0.01300000       0.60973760      -0.42478539      -0.93482515
B        1.43777000       1.42195000       0.92553000       0.01200000      -0.64093122       0.84999326       0.13437574
4
Lattice="2.630561923769261 0.0 0.0 -0.3849083296960916 4.934198459733178 0.0 -0.7907733063437624 2.5582966217469236 2.459800364648367" Properties=species:S:1:pos:R:3:initial_magmoms:R:1:forces:R:3 energy=-43.18621273 stress="0.004529951208747202 0.12676256816126472 0.024604271332097156 0.12676256816126472 -0.006071788149778807 -0.07518210941074487 0.024604271332097156 -0.07518210941074487 0.014179817390368039" config_type=matpes-20240214_1007881_6 pbc="T T T"
Fe       2.16584331       2.61248338       0.52471964       1.25400000       0.00847561       0.04372435       0.96195325
Fe      -0.03070033       5.24253446       0.80731800       1.25300000      -0.00927092      -0.04717025      -0.96202090
B        0.93600000       3.65619000       1.71469000      -0.09900000       0.07313663       0.00914137      -0.10292572
B        0.40802967       6.75684846       2.07752000      -0.09900000      -0.07234131      -0.00569547       0.10299337
8
Lattice="2.623528117379563 0.0 0.0 0.0897497734894724 2.6890439035525406 0.0 0.0447252837524962 -0.6211887219958652 9.908784552798691" Properties=species:S:1:pos:R:3:initial_magmoms:R:1:forces:R:3 energy=-84.68097624 stress="-0.030003043313743087 0.020446975236556808 -0.03230197888813109 0.020446975236556808 -0.001992900494587322 -0.07885385014996399 -0.03230197888813109 -0.07885385014996399 -0.02820024480045215" config_type=matpes-20240214_1080525_7 pbc="T T T"
Fe       1.18283000       2.03175000       2.58523000       2.06600000       0.85626972       0.29922958      -0.37422594
Fe       1.23888000       1.68163000       7.52837000       2.13100000       0.28851524       0.18628428      -0.41685245
Fe       0.06567188       0.53183900       4.27005000       2.09800000      -0.89187334      -0.31092450       0.51049205
Fe       2.67816528       0.26749128       9.24959055       2.13700000      -0.28678892      -0.29187467       0.32684177
B        2.57484000       1.78735000       5.87640000      -0.14900000       0.63916273      -0.38023113       0.22480524
B        1.30631000       0.76755800       0.99496400      -0.14800000      -0.79559170       0.47207525      -0.28757113
B        2.58260000       2.19158000       0.94544400      -0.15100000       0.45336992      -0.73597924       0.00498413
B        1.27241000       0.36014400       5.91965000      -0.15100000      -0.26306365       0.76142042       0.01152632
8
Lattice="2.6136263145353102 0.0 0.0 0.0945061725582039 2.659575357044732 0.0 -0.1551871045950874 -0.3385248179401832 9.957614305491617" Properties=species:S:1:pos:R:3:initial_magmoms:R:1:forces:R:3 energy=-85.32614374 stress="-0.06653687811713072 0.006760576162084172 -0.03861299139995911 0.006760576162084172 -0.04178302325791844 -0.04897237765898279 -0.03861299139995911 -0.04897237765898279 0.09370386362612107" config_type=matpes-20240214_1080525_6 pbc="T T T"
Fe       2.39110000       0.10322300       3.65185000      -0.53400000       0.42490746      -0.74099007       0.40260256
Fe       2.33425000      -0.06454120       8.61879000       2.85800000       0.04861041      -0.44308366       0.17469746
Fe       1.30924000       1.47978000       0.36904100       2.05000000      -0.81862045      -0.02082373       0.81664004
Fe       1.01072000       1.21888000       6.99389000       2.00200000       0.97406243       0.45488740      -1.38166117
B        1.11426000      -0.06274280       5.24044000      -0.05700000      -0.54771212       0.54949704       0.66688239
B        2.45723000       1.43444000       2.10315000      -0.05800000       0.59106701      -0.34918422      -0.51767269